bilayer.26.100.250.lammps-data (written by ASE) 

19157 	 atoms 
2  atom types
0.0                     250  xlo xhi
0.0                     100  ylo yhi
0.0                      15  zlo zhi


Atoms 

     1   1                       0                     100                       0
     2   1     0.71000000000000008      98.770243926626094                       0
     3   1      2.1299999999999999      98.770243926626094                       0
     4   1      2.8399999999999999                     100                       0
     5   1      4.2599999999999998                     100                       0
     6   1      4.9699999999999998      98.770243926626094                       0
     7   1      6.3899999999999997      98.770243926626094                       0
     8   1      7.0999999999999996                     100                       0
     9   1      8.5199999999999996                     100                       0
    10   1      9.2300000000000004      98.770243926626094                       0
    11   1      10.649999999999999      98.770243926626094                       0
    12   1      11.359999999999999                     100                       0
    13   1      12.779999999999999                     100                       0
    14   1      13.489999999999998      98.770243926626094                       0
    15   1                   14.91      98.770243926626094                       0
    16   1      15.619999999999999                     100                       0
    17   1      17.039999999999999                     100                       0
    18   1                   17.75      98.770243926626094                       0
    19   1      19.169999999999998      98.770243926626094                       0
    20   1      19.879999999999999                     100                       0
    21   1      21.299999999999997                     100                       0
    22   1      22.009999999999998      98.770243926626094                       0
    23   1      23.429999999999996      98.770243926626094                       0
    24   1      24.139999999999997                     100                       0
    25   1      25.559999999999999                     100                       0
    26   1                   26.27      98.770243926626094                       0
    27   1      27.689999999999998      98.770243926626094                       0
    28   1      28.399999999999999                     100                       0
    29   1                   29.82                     100                       0
    30   1      30.530000000000001      98.770243926626094                       0
    31   1      31.949999999999999      98.770243926626094                       0
    32   1      32.659999999999997                     100                       0
    33   1      34.079999999999998                     100                       0
    34   1      34.789999999999999      98.770243926626094                       0
    35   1      36.210000000000001      98.770243926626094                       0
    36   1      36.920000000000002                     100                       0
    37   1      38.339999999999996                     100                       0
    38   1      39.049999999999997      98.770243926626094                       0
    39   1      40.469999999999999      98.770243926626094                       0
    40   1      41.179999999999993                     100                       0
    41   1      42.599999999999994                     100                       0
    42   1      43.309999999999995      98.770243926626094                       0
    43   1      44.729999999999997      98.770243926626094                       0
    44   1      45.439999999999998                     100                       0
    45   1      46.859999999999999                     100                       0
    46   1                   47.57      98.770243926626094                       0
    47   1      48.990000000000002      98.770243926626094                       0
    48   1      49.700000000000003                     100                       0
    49   1      51.119999999999997                     100                       0
    50   1      51.829999999999998      98.770243926626094                       0
    51   1                   53.25      98.770243926626094                       0
    52   1      53.959999999999994                     100                       0
    53   1      55.379999999999995                     100                       0
    54   1      56.089999999999996      98.770243926626094                       0
    55   1      57.509999999999998      98.770243926626094                       0
    56   1      58.219999999999999                     100                       0
    57   1      59.640000000000001                     100                       0
    58   1      60.350000000000001      98.770243926626108                       0
    59   1      61.770000000000003      98.770243926626108                       0
    60   1      62.480000000000004                     100                       0
    61   1      63.899999999999999                     100                       0
    62   1      64.609999999999999      98.770243926626108                       0
    63   1      66.030000000000001      98.770243926626108                       0
    64   1      66.739999999999995                     100                       0
    65   1      68.159999999999997                     100                       0
    66   1       68.86999999999999      98.770243926626108                       0
    67   1      70.289999999999992      98.770243926626108                       0
    68   1                      71                     100                       0
    69   1      72.420000000000002                     100                       0
    70   1      73.129999999999995      98.770243926626108                       0
    71   1      74.549999999999997      98.770243926626108                       0
    72   1      75.260000000000005                     100                       0
    73   1      76.679999999999993                     100                       0
    74   1      77.389999999999986      98.770243926626108                       0
    75   1      78.809999999999988      98.770243926626108                       0
    76   1      79.519999999999996                     100                       0
    77   1      80.939999999999998                     100                       0
    78   1      81.649999999999991      98.770243926626108                       0
    79   1      83.069999999999993      98.770243926626108                       0
    80   1      83.780000000000001                     100                       0
    81   1      85.199999999999989                     100                       0
    82   1      85.909999999999982      98.770243926626108                       0
    83   1      87.329999999999984      98.770243926626108                       0
    84   1      88.039999999999992                     100                       0
    85   1      89.459999999999994                     100                       0
    86   1      90.169999999999987      98.770243926626108                       0
    87   1      91.589999999999989      98.770243926626108                       0
    88   1      92.299999999999997                     100                       0
    89   1      93.719999999999999                     100                       0
    90   1      94.429999999999993      98.770243926626108                       0
    91   1      95.849999999999994      98.770243926626108                       0
    92   1      96.560000000000002                     100                       0
    93   1       97.97999999999999                     100                       0
    94   1      98.689999999999984      98.770243926626108                       0
    95   1      100.10999999999999      98.770243926626108                       0
    96   1      100.81999999999999                     100                       0
    97   1      102.23999999999999                     100                       0
    98   1      102.94999999999999      98.770243926626108                       0
    99   1      104.36999999999999      98.770243926626108                       0
   100   1                  105.08                     100                       0
   101   1                   106.5                     100                       0
   102   1      107.20999999999999      98.770243926626108                       0
   103   1                  108.63      98.770243926626108                       0
   104   1                  109.34                     100                       0
   105   1      110.75999999999999                     100                       0
   106   1      111.46999999999998      98.770243926626108                       0
   107   1      112.88999999999999      98.770243926626108                       0
   108   1      113.59999999999999                     100                       0
   109   1                  115.02                     100                       0
   110   1      115.72999999999999      98.770243926626108                       0
   111   1      117.14999999999999      98.770243926626108                       0
   112   1      119.98999999999999      98.770243926626108                       0
   113   1                  121.41      98.770243926626108                       0
   114   1      124.24999999999999      98.770243926626108                       0
   115   1      125.66999999999999      98.770243926626108                       0
   116   1      128.50999999999999      98.770243926626108                       0
   117   1      129.93000000000001      98.770243926626108                       0
   118   1      132.77000000000001      98.770243926626108                       0
   119   1                  134.19      98.770243926626108                       0
   120   1                  137.03      98.770243926626108                       0
   121   1      138.44999999999999      98.770243926626108                       0
   122   1      141.28999999999999      98.770243926626108                       0
   123   1      142.70999999999998      98.770243926626108                       0
   124   1      145.55000000000001      98.770243926626108                       0
   125   1                  146.97      98.770243926626108                       0
   126   1                  149.81      98.770243926626108                       0
   127   1      151.22999999999999      98.770243926626108                       0
   128   1      154.06999999999999      98.770243926626108                       0
   129   1      155.48999999999998      98.770243926626108                       0
   130   1      158.33000000000001      98.770243926626108                       0
   131   1                  159.75      98.770243926626108                       0
   132   1                  162.59      98.770243926626108                       0
   133   1      164.00999999999999      98.770243926626108                       0
   134   1      166.84999999999999      98.770243926626108                       0
   135   1      168.26999999999998      98.770243926626108                       0
   136   1      171.10999999999999      98.770243926626108                       0
   137   1      172.52999999999997      98.770243926626108                       0
   138   1                  175.37      98.770243926626108                       0
   139   1      176.78999999999999      98.770243926626108                       0
   140   1                  179.63      98.770243926626108                       0
   141   1      181.04999999999998      98.770243926626108                       0
   142   1      183.88999999999999      98.770243926626108                       0
   143   1      185.30999999999997      98.770243926626108                       0
   144   1      188.15000000000001      98.770243926626108                       0
   145   1      189.56999999999999      98.770243926626108                       0
   146   1                  192.41      98.770243926626108                       0
   147   1      193.82999999999998      98.770243926626108                       0
   148   1      196.66999999999999      98.770243926626108                       0
   149   1      198.08999999999997      98.770243926626108                       0
   150   1      200.93000000000001      98.770243926626108                       0
   151   1      202.34999999999999      98.770243926626108                       0
   152   1                  205.19      98.770243926626108                       0
   153   1      206.60999999999999      98.770243926626108                       0
   154   1      209.44999999999999      98.770243926626108                       0
   155   1      210.86999999999998      98.770243926626108                       0
   156   1      213.71000000000001      98.770243926626108                       0
   157   1                  215.13      98.770243926626108                       0
   158   1                  217.97      98.770243926626108                       0
   159   1      219.38999999999999      98.770243926626108                       0
   160   1      222.22999999999999      98.770243926626108                       0
   161   1      223.64999999999998      98.770243926626108                       0
   162   1      226.49000000000001      98.770243926626108                       0
   163   1                  227.91      98.770243926626108                       0
   164   1                  230.75      98.770243926626108                       0
   165   1      232.16999999999999      98.770243926626108                       0
   166   1      235.00999999999999      98.770243926626108                       0
   167   1      236.42999999999998      98.770243926626108                       0
   168   1      239.27000000000001      98.770243926626108                       0
   169   1                  240.69      98.770243926626108                       0
   170   1                  243.53      98.770243926626108                       0
   171   1      244.94999999999999      98.770243926626108                       0
   172   1      247.78999999999999      98.770243926626108                       0
   173   1      249.20999999999998      98.770243926626108                       0
   174   1  1.5060168389893678e-16      97.540487853252188                       0
   175   1     0.71000000000000019      96.310731779878296                       0
   176   1      2.1300000000000003      96.310731779878296                       0
   177   1      2.8399999999999999      97.540487853252188                       0
   178   1      4.2599999999999998      97.540487853252188                       0
   179   1      4.9699999999999998      96.310731779878296                       0
   180   1      6.3899999999999997      96.310731779878296                       0
   181   1      7.0999999999999996      97.540487853252188                       0
   182   1      8.5199999999999996      97.540487853252188                       0
   183   1      9.2300000000000004      96.310731779878296                       0
   184   1      10.649999999999999      96.310731779878296                       0
   185   1      11.359999999999999      97.540487853252202                       0
   186   1      12.779999999999999      97.540487853252202                       0
   187   1      13.489999999999998      96.310731779878296                       0
   188   1                   14.91      96.310731779878296                       0
   189   1      15.619999999999999      97.540487853252202                       0
   190   1      17.039999999999999      97.540487853252202                       0
   191   1                   17.75      96.310731779878296                       0
   192   1      19.169999999999998      96.310731779878296                       0
   193   1      19.879999999999999      97.540487853252202                       0
   194   1      21.299999999999997      97.540487853252202                       0
   195   1      22.009999999999998      96.310731779878296                       0
   196   1      23.429999999999996      96.310731779878296                       0
   197   1      24.139999999999997      97.540487853252202                       0
   198   1      25.559999999999999      97.540487853252202                       0
   199   1                   26.27      96.310731779878296                       0
   200   1      27.689999999999998      96.310731779878296                       0
   201   1      28.399999999999999      97.540487853252202                       0
   202   1                   29.82      97.540487853252202                       0
   203   1      30.530000000000001      96.310731779878296                       0
   204   1      31.949999999999999      96.310731779878296                       0
   205   1      32.659999999999997      97.540487853252202                       0
   206   1      34.079999999999998      97.540487853252202                       0
   207   1      34.789999999999999      96.310731779878296                       0
   208   1      36.210000000000001      96.310731779878296                       0
   209   1      36.920000000000002      97.540487853252202                       0
   210   1      38.339999999999996      97.540487853252202                       0
   211   1      39.049999999999997      96.310731779878296                       0
   212   1      40.469999999999999      96.310731779878296                       0
   213   1      41.179999999999993      97.540487853252202                       0
   214   1      42.599999999999994      97.540487853252202                       0
   215   1      43.309999999999995      96.310731779878296                       0
   216   1      44.729999999999997      96.310731779878296                       0
   217   1      45.439999999999998      97.540487853252202                       0
   218   1      46.859999999999999      97.540487853252202                       0
   219   1                   47.57      96.310731779878296                       0
   220   1      48.990000000000002      96.310731779878296                       0
   221   1      49.700000000000003      97.540487853252202                       0
   222   1      51.119999999999997      97.540487853252202                       0
   223   1      51.829999999999998      96.310731779878296                       0
   224   1                   53.25      96.310731779878296                       0
   225   1      53.959999999999994      97.540487853252202                       0
   226   1      55.379999999999995      97.540487853252202                       0
   227   1      56.089999999999996      96.310731779878296                       0
   228   1      57.509999999999998      96.310731779878296                       0
   229   1      58.219999999999999      97.540487853252202                       0
   230   1      59.640000000000001      97.540487853252202                       0
   231   1      60.350000000000001      96.310731779878296                       0
   232   1      61.770000000000003      96.310731779878296                       0
   233   1      62.480000000000004      97.540487853252202                       0
   234   1      63.899999999999999      97.540487853252202                       0
   235   1      64.609999999999999      96.310731779878296                       0
   236   1      66.030000000000001      96.310731779878296                       0
   237   1      66.739999999999995      97.540487853252202                       0
   238   1      68.159999999999997      97.540487853252202                       0
   239   1       68.86999999999999      96.310731779878296                       0
   240   1      70.289999999999992      96.310731779878296                       0
   241   1                      71      97.540487853252202                       0
   242   1      72.420000000000002      97.540487853252202                       0
   243   1      73.129999999999995      96.310731779878296                       0
   244   1      74.549999999999997      96.310731779878296                       0
   245   1      75.260000000000005      97.540487853252202                       0
   246   1      76.679999999999993      97.540487853252202                       0
   247   1      77.389999999999986      96.310731779878296                       0
   248   1      78.809999999999988      96.310731779878296                       0
   249   1      79.519999999999996      97.540487853252202                       0
   250   1      80.939999999999998      97.540487853252202                       0
   251   1      81.649999999999991      96.310731779878296                       0
   252   1      83.069999999999993      96.310731779878296                       0
   253   1      83.780000000000001      97.540487853252202                       0
   254   1      85.199999999999989      97.540487853252202                       0
   255   1      85.909999999999982      96.310731779878296                       0
   256   1      87.329999999999984      96.310731779878296                       0
   257   1      88.039999999999992      97.540487853252202                       0
   258   1      89.459999999999994      97.540487853252202                       0
   259   1      90.169999999999987      96.310731779878296                       0
   260   1      91.589999999999989      96.310731779878296                       0
   261   1      92.299999999999997      97.540487853252202                       0
   262   1      93.719999999999999      97.540487853252202                       0
   263   1      94.429999999999993      96.310731779878296                       0
   264   1      95.849999999999994      96.310731779878296                       0
   265   1      96.560000000000002      97.540487853252202                       0
   266   1       97.97999999999999      97.540487853252202                       0
   267   1      98.689999999999984      96.310731779878296                       0
   268   1      100.10999999999999      96.310731779878296                       0
   269   1      100.81999999999999      97.540487853252202                       0
   270   1      102.23999999999999      97.540487853252202                       0
   271   1      102.94999999999999      96.310731779878296                       0
   272   1      104.36999999999999      96.310731779878296                       0
   273   1                  105.08      97.540487853252202                       0
   274   1                   106.5      97.540487853252202                       0
   275   1      107.20999999999999      96.310731779878296                       0
   276   1                  108.63      96.310731779878296                       0
   277   1                  109.34      97.540487853252202                       0
   278   1      110.75999999999999      97.540487853252202                       0
   279   1      111.46999999999998      96.310731779878296                       0
   280   1      112.88999999999999      96.310731779878296                       0
   281   1      113.59999999999999      97.540487853252202                       0
   282   1                  115.02      97.540487853252202                       0
   283   1      115.72999999999999      96.310731779878296                       0
   284   1      117.14999999999999      96.310731779878296                       0
   285   1                  117.86      97.540487853252202                       0
   286   1                  119.28      97.540487853252202                       0
   287   1      119.98999999999999      96.310731779878296                       0
   288   1                  121.41      96.310731779878296                       0
   289   1                  122.12      97.540487853252202                       0
   290   1      123.53999999999999      97.540487853252202                       0
   291   1      124.24999999999999      96.310731779878296                       0
   292   1      125.66999999999999      96.310731779878296                       0
   293   1                  126.38      97.540487853252202                       0
   294   1                   127.8      97.540487853252202                       0
   295   1      128.50999999999999      96.310731779878296                       0
   296   1      129.93000000000001      96.310731779878296                       0
   297   1      130.63999999999999      97.540487853252202                       0
   298   1                  132.06      97.540487853252202                       0
   299   1      132.77000000000001      96.310731779878296                       0
   300   1                  134.19      96.310731779878296                       0
   301   1      134.90000000000001      97.540487853252202                       0
   302   1      136.31999999999999      97.540487853252202                       0
   303   1                  137.03      96.310731779878296                       0
   304   1      138.44999999999999      96.310731779878296                       0
   305   1                  139.16      97.540487853252202                       0
   306   1      140.57999999999998      97.540487853252202                       0
   307   1      141.28999999999999      96.310731779878296                       0
   308   1      142.70999999999998      96.310731779878296                       0
   309   1      143.41999999999999      97.540487853252202                       0
   310   1                  144.84      97.540487853252202                       0
   311   1      145.55000000000001      96.310731779878296                       0
   312   1                  146.97      96.310731779878296                       0
   313   1      147.68000000000001      97.540487853252202                       0
   314   1      149.09999999999999      97.540487853252202                       0
   315   1                  149.81      96.310731779878296                       0
   316   1      151.22999999999999      96.310731779878296                       0
   317   1                  151.94      97.540487853252202                       0
   318   1      153.35999999999999      97.540487853252202                       0
   319   1      154.06999999999999      96.310731779878296                       0
   320   1      155.48999999999998      96.310731779878296                       0
   321   1      156.19999999999999      97.540487853252202                       0
   322   1                  157.62      97.540487853252202                       0
   323   1      158.33000000000001      96.310731779878296                       0
   324   1                  159.75      96.310731779878296                       0
   325   1      160.46000000000001      97.540487853252202                       0
   326   1                  161.88      97.540487853252202                       0
   327   1                  162.59      96.310731779878296                       0
   328   1      164.00999999999999      96.310731779878296                       0
   329   1                  164.72      97.540487853252202                       0
   330   1      166.13999999999999      97.540487853252202                       0
   331   1      166.84999999999999      96.310731779878296                       0
   332   1      168.26999999999998      96.310731779878296                       0
   333   1      168.97999999999999      97.540487853252202                       0
   334   1      170.39999999999998      97.540487853252202                       0
   335   1      171.10999999999999      96.310731779878296                       0
   336   1      172.52999999999997      96.310731779878296                       0
   337   1      173.23999999999998      97.540487853252202                       0
   338   1                  174.66      97.540487853252202                       0
   339   1                  175.37      96.310731779878296                       0
   340   1      176.78999999999999      96.310731779878296                       0
   341   1                   177.5      97.540487853252202                       0
   342   1      178.91999999999999      97.540487853252202                       0
   343   1                  179.63      96.310731779878296                       0
   344   1      181.04999999999998      96.310731779878296                       0
   345   1      181.75999999999999      97.540487853252202                       0
   346   1      183.17999999999998      97.540487853252202                       0
   347   1      183.88999999999999      96.310731779878296                       0
   348   1      185.30999999999997      96.310731779878296                       0
   349   1      186.01999999999998      97.540487853252202                       0
   350   1                  187.44      97.540487853252202                       0
   351   1      188.15000000000001      96.310731779878296                       0
   352   1      189.56999999999999      96.310731779878296                       0
   353   1                  190.28      97.540487853252202                       0
   354   1      191.69999999999999      97.540487853252202                       0